
                                 *****************
                                 * O   R   C   A *
                                 *****************

                                            #,                                       
                                            ###                                      
                                            ####                                     
                                            #####                                    
                                            ######                                   
                                           ########,                                 
                                     ,,################,,,,,                         
                               ,,#################################,,                 
                          ,,##########################################,,             
                       ,#########################################, ''#####,          
                    ,#############################################,,   '####,        
                  ,##################################################,,,,####,       
                ,###########''''           ''''###############################       
              ,#####''   ,,,,##########,,,,          '''####'''          '####       
            ,##' ,,,,###########################,,,                        '##       
           ' ,,###''''                  '''############,,,                           
         ,,##''                                '''############,,,,        ,,,,,,###''
      ,#''                                            '''#######################'''  
     '                                                          ''''####''''         
             ,#######,   #######,   ,#######,      ##                                
            ,#'     '#,  ##    ##  ,#'     '#,    #''#        ,####,    ,#,          
            ##       ##  ##   ,#'  ##            #'  '#       #'       ,# #          
            ##       ##  #######   ##           ,######,      #####,      #          
            '#,     ,#'  ##    ##  '#,     ,#' ,#      #,     #,   #      #          
             '#######'   ##     ##  '#######'  #'      '#     '####' #    #          



                #########################################################
                #                        -***-                          #
                #          Department of theory and spectroscopy        #
                #                                                       #
                #                      Frank Neese                      #
                #                                                       #
                #     Directorship, Architecture, Infrastructure        #
                #                    SHARK, DRIVERS                     #
                #        Core code/Algorithms in most modules           #
                #                                                       #
                #        Max Planck Institute fuer Kohlenforschung      #
                #                Kaiser Wilhelm Platz 1                 #
                #                 D-45470 Muelheim/Ruhr                 #
                #                      Germany                          #
                #                                                       #
                #                  All rights reserved                  #
                #                        -***-                          #
                #########################################################


                         Program Version 6.1.0  -  RELEASE   -
                                (GIT: $679e74b$)
                          ($2025-06-10 18:02:51 +0200$)


 With contributions from (in alphabetic order):
[Max-Planck-Institut fuer Kohlenforschung]                               
  Daniel Aravena         : Magnetic Suceptibility                        
  Michael Atanasov       : Ab Initio Ligand Field Theory (pilot matlab implementation)
  Alexander A. Auer      : GIAO ZORA, VPT2 properties, NMR spectrum      
  Ute Becker             : All parallelization in ORCA, NUMFREQ, NUMCALC 
  Giovanni Bistoni       : ED, misc. LED, open-shell LED, HFLD           
  Dmytro Bykov           : pre 5.0 version of the SCF Hessian            
  Marcos Casanova-Páez   : Triplet and SCS-CIS(D). UHF-(DLPNO)-IP/EA/STEOM-CCSD. UHF-CVS-IP/STEOM-CCSD   
  Vijay G. Chilkuri      : MRCI spin determinant printing, contributions to CSF-ICE 
  Pauline Colinet        : FMM embedding                                 
  Dipayan Datta          : RHF DLPNO-CCSD density                        
  Achintya Kumar Dutta   : EOM-CC, STEOM-CC                              
  Nicolas Foglia         : Exact transition moments, OPA infrastructure, MCD improvements    
  Dmitry Ganyushin       : Spin-Orbit,Spin-Spin,Magnetic field MRCI      
  Miquel Garcia-Rates    : C-PCM and meta-GGA Hessian, CCSD/C-PCM, Gaussian charge scheme 
  Tiago L. C. Gouveia    : GS-ROHF, GS-ROCIS                             
  Yang Guo               : DLPNO-NEVPT2, F12-NEVPT2, CIM, IAO-localization        
  Andreas Hansen         : Spin unrestricted coupled pair/coupled cluster methods 
  Ingolf Harden          : AUTO-CI MPn and infrastructure                
  Benjamin Helmich-Paris : MC-RPA, TRAH-(SCF,CASSCF), AVAS, COSX integrals, SCF dyn. polar., MC-PDFT, srDFT 
  Lee Huntington         : MR-EOM, pCC                                   
  Robert Izsak           : Overlap fitted RIJCOSX, COSX-SCS-MP3, EOM     
  Riya Kayal             : Wick's Theorem for AUTO-CI, AUTO-CI UHF-CCSDT 
  Emily Kempfer          : AUTO-CI RHF CISDT and CCSDT, approximate NEVPT4
  Christian Kollmar      : KDIIS, OOCD, Brueckner-CCSD(T), CCSD density, CASPT2, CASPT2-K, improved NEVPT2 
  Axel Koslowski         : Symmetry handling                             
  Simone Kossmann        : meta-GGA functionals, TD-DFT gradient, OOMP2, (MP2 Hessian; deprecated post 5.0) 
  Lucas Lang             : DCDCAS, Hyperfine gauge corrections, ICE-SOC+SSC
  Marvin Lechner         : AUTO-CI (C++ implementation), FIC-MRCC        
  Spencer Leger          : CASSCF response                               
  Dagmar Lenk            : GEPOL surface, SMD, ORCA-2-JSON               
  Dimitrios Liakos       : Extrapolation schemes; Compound Job, Property file
  Dimitrios Manganas     : Further ROCIS development; embedding schemes. LFT, Crystal Embedding 
  Dimitrios Pantazis     : SARC Basis sets                               
  Anastasios Papadopoulos: AUTO-CI, single reference methods and gradients 
  Taras Petrenko         : pre 6.0 DFT Hessian and TD-DFT gradient,  ECA, NRVS 
  Petra Pikulova         : Analytic Raman intensities                    
  Peter Pinski           : DLPNO-MP2, DLPNO-MP2 Gradient                 
  Shashank Vittal Rao    : ES-AILFT, MagRelax                            
  Christoph Reimann      : Effective Core Potentials                     
  Marius Retegan         : Local ZFS, SOC                                
  Christoph Riplinger    : Optimizer, TS searches, QM/MM, DLPNO-CCSD(T), (RO)-DLPNO pert. Triples 
  Michael Roemelt        : Original ROCIS implementation, recursive CI coupling coefficients
  Masaaki Saitow         : Open-shell DLPNO-CCSD energy and density      
  Barbara Sandhoefer     : DKH picture change effects                    
  Yorick L. A. Schmerwitz: GMF and freeze-and-release deltaSCF, NEB S-IDPP initial path                    
  Kantharuban Sivalingam : CASSCF convergence/infrastructure, NEVPT2, NEVPT3, NEVPT4(SD), FIC-MRCI and CEPA variants
  Bernardo de Souza      : ESD, SOC TD-DFT                               
  Georgi L. Stoychev     : AutoAux, RI-MP2 NMR, DLPNO-MP2 response, X2C  
  Van Anh Tran           : RI-MP2 g-tensors                              
  Willem Van den Heuvel  : Paramagnetic NMR                              
  Zikuan Wang            : NOTCH, Electric field optimization            
  Frank Wennmohs         : Technical directorship and infrastructure     
  Hang Xu                : AUTO-CI-Response properties                   
                                                                         
[FACCTs GmbH]                                                            
  Markus Bursch, Nicolas Foglia, Miquel Garcia-Rates, Ingolf Harden, Hagen Neugebauer, Anastasios Papadopoulos, 
  Christoph Riplinger, Bernardo de Souza, Georgi L. Stoychev                                                    
                                                                 
  APM, various basis sets, CI-OPT, improved COSX, DLPNO-Multilevel,           
  DOCKER, DRACO, updates on ESD, Fragmentator, GOAT, IRC, LR-CPCM, L-BFGS, MBIS, meta-GGA TD-DFT gradient, ML-optimized integration grids, 
  MM, NACMEs, nearIR, NEB, NEB-TS, NL-DFT gradient (VV10), 2- and 3-layer-ONIOM, interface openCOSMO-RS, QMMM,   
  Crystal-QMMM, RESP, rigid body optimization, SF, symmetry and pop. for TD-DFT, various functionals, SOLVATOR                                   
                                                                         
[Other institutions]                                                     
  V. Asgeirsson          : NEB                                           
  Christoph Bannwarth    : sTDA-DFT, sTD-DFT, PBEh-3c, B97-3c, D3        
  Giovanni Bistoni       : ETS/NOCV, ADLD/ADEX, COVALED                  
  Martin Brehm           : Molecular dynamics                            
  Ronald Cardenas        : ETS/NOCV                                      
  Martina Colucci        : COVALED                                       
  Sebastian Ehlert       : rSCAN, r2SCAN, r2SCAN-3c, D4, dhf basis sets  
  Marvin Friede          : D4 for Fr, Ra, Ac-Lr                          
  Lars Goerigk           : TD-DFT with DH, B97 family of functionals     
  Stefan Grimme          : VdW corrections, initial TS optimization, DFT functionals, gCP, sTDA/sTD-DF 
  Waldemar Hujo          : DFT-NL                                        
  H. Jonsson             : NEB                                           
  Holger Kruse           : gCP                                           
  Marcel Mueller         : wB97X-3c, vDZP basis set                      
  Hagen Neugebauer       : wr2SCAN, Native XTB                           
  Gianluca Regni         : ADLD/ADEX                                     
  Tobias Risthaus        : pre 6.0 range-separated hybrid DFT and stability analysis
  Lukas Wittmann         : regularized MP2, r2SCAN double-hybrids, wr2SCAN        
                                                                         
We gratefully acknowledge several colleagues who have allowed us to      
interface, adapt or use parts of their codes:                            
  Ed Valeev, F. Pavosevic, A. Kumar             : LibInt (2-el integral package), F12 methods 
  Garnet Chan, S. Sharma, J. Yang, R. Olivares  : DMRG                   
  Ulf Ekstrom                                   : XCFun DFT Library      
  Mihaly Kallay                                 : mrcc  (arbitrary order and MRCC methods)
  Frank Weinhold                                : gennbo (NPA and NBO analysis)           
  Simon Mueller                                 : openCOSMO-RS                            
  Christopher J. Cramer and Donald G. Truhlar   : smd solvation model                     
  S Lehtola, MJT Oliveira, MAL Marques          : LibXC Library                           
  Liviu Ungur et al                             : ANISO software                          


 Your calculation uses the libint2 library for the computation of 2-el integrals
 For citations please refer to: http://libint.valeyev.net

 Your ORCA version has been built with support for libXC version: 7.0.0
 For citations please refer to: https://libxc.gitlab.io

 This ORCA versions uses:
   CBLAS   interface :  Fast vector & matrix operations
   LAPACKE interface :  Fast linear algebra routines
   SCALAPACK package :  Parallel linear algebra routines
   Shared memory     :  Shared parallel matrices
   BLAS/LAPACK       :  OpenBLAS 0.3.29  USE64BITINT DYNAMIC_ARCH NO_AFFINITY Haswell SINGLE_THREADED
        Core in use  :  Haswell
   Copyright (c) 2011-2014, The OpenBLAS Project


  ***********************************
  * Starting time: Thu Feb  5 20:42:18 2026
  * Host name:     thinkpad
  * Process ID:    88750
  * Working dir.:  /home/ali/Documents/orca/tmp
  ***********************************

NOTE: MaxCore=500 MB was set to SCF,MP2,MDCI,CIPSI,MRCI,RASCI and CIS
      => If you want to overwrite this, your respective input block should be placed after the MaxCore statement


***************************************
The coordinates will be read from file: water.xyz
***************************************


Your calculation utilizes the geometrical counterpoise correction gCP
Please cite in your paper:
H.Kruse, S. Grimme J.Chem.Phys., 136, (2012), 154101 
   

Your calculation utilizes the atom-pairwise dispersion correction
based on EEQ partial charges (D4)


================================================================================

----- Orbital basis set information -----
Your calculation utilizes the basis: def2-mTZVPP
   Stefan Grimme, Andreas Hansen, Sebastian Ehlert, and Jan-Michael Mewes 
   J. Chem. Phys. 154, 064103 (2021). DOI: 10.1063/5.0040021

----- AuxJ basis set information -----
Your calculation utilizes the basis: def2-mTZVPP/J
   Stefan Grimme, Andreas Hansen, Sebastian Ehlert, and Jan-Michael Mewes 
   J. Chem. Phys. 154, 000000 (2021). DOI: 10.1063/5.0040021

================================================================================
                                        WARNINGS
                       Please study these warnings very carefully!
================================================================================



WARNING: SCAN, rSCAN, or r2SCAN functional requested.
  ===> : libXC variant has now been activated.



WARNING: Geometry Optimization
  ===> : Switching off AutoStart
         For restart on a previous wavefunction, please use MOREAD

================================================================================
                                       INPUT FILE
================================================================================
NAME = water.inp
|  1> ! r2scan-3c opt 
|  2> %maxcore 500
|  3> %pal nprocs 1 end
|  4> 
|  5> * xyzfile 0 1 water.xyz
|  6> 
|  7>                          ****END OF INPUT****
================================================================================

                       *****************************
                       * Geometry Optimization Run *
                       *****************************

Geometry optimization settings:
Update method            Update   .... BFGS
Choice of coordinates    CoordSys .... (2022) Redundant Internals
Initial Hessian          InHess   .... Almloef's Model
Max. no of cycles        MaxIter  .... 50

Convergence Tolerances:
Energy Change            TolE     ....  5.0000e-06 Eh
Max. Gradient            TolMAXG  ....  3.0000e-04 Eh/bohr
RMS Gradient             TolRMSG  ....  1.0000e-04 Eh/bohr
Max. Displacement        TolMAXD  ....  4.0000e-03 bohr
RMS Displacement         TolRMSD  ....  2.0000e-03 bohr
Strict Convergence                .... False

------------------------------------------------------------------------------
                        ORCA OPTIMIZATION COORDINATE SETUP
------------------------------------------------------------------------------

The optimization will be done in redundant internal coordinates (2022)
Making redundant internal coordinates   ...  (2022 redundants) done
Evaluating the initial hessian          ...  (Almloef) done
Evaluating the coordinates              ...  done
Calculating the B-matrix                .... done
Calculating the G-matrix                .... done
The number of degrees of freedom        ....    3

    -----------------------------------------------------------------
                    Redundant Internal Coordinates


    -----------------------------------------------------------------
         Definition                    Initial Value    Approx d2E/dq
    -----------------------------------------------------------------
      1. B(H   1,O   0)                  1.1180         0.290960   
      2. B(H   2,O   0)                  1.1180         0.290960   
      3. A(H   1,O   0,H   2)          126.8699         0.268024   
    -----------------------------------------------------------------

Number of atoms                         .... 3
Number of degrees of freedom            .... 3


         *************************************************************
         *                GEOMETRY OPTIMIZATION CYCLE   1            *
         *************************************************************
---------------------------------
CARTESIAN COORDINATES (ANGSTROEM)
---------------------------------
  O      0.000000    0.000000    0.000000
  H      1.000000    0.500000    0.000000
  H     -1.000000    0.500000    0.000000

----------------------------
CARTESIAN COORDINATES (A.U.)
----------------------------
  NO LB      ZA    FRAG     MASS         X           Y           Z
   0 O     8.0000    0    15.999    0.000000    0.000000    0.000000
   1 H     1.0000    0     1.008    1.889726    0.944863    0.000000
   2 H     1.0000    0     1.008   -1.889726    0.944863    0.000000

--------------------------------
INTERNAL COORDINATES (ANGSTROEM)
--------------------------------
 O      0   0   0     0.000000000000     0.00000000     0.00000000
 H      1   0   0     1.118033988750     0.00000000     0.00000000
 H      1   2   0     1.118033988750   126.86989765     0.00000000

---------------------------
INTERNAL COORDINATES (A.U.)
---------------------------
 O      0   0   0     0.000000000000     0.00000000     0.00000000
 H      1   0   0     2.112778047153     0.00000000     0.00000000
 H      1   2   0     2.112778047153   126.86989765     0.00000000

---------------------
BASIS SET INFORMATION
---------------------
There are 2 groups of distinct atoms

 Group   1 Type O   : 11s6p2d contracted to 5s3p2d pattern {62111/411/11}
 Group   2 Type H   : 4s1p contracted to 2s1p pattern {31/1}

Atom   0O    basis set group =>   1
Atom   1H    basis set group =>   2
Atom   2H    basis set group =>   2
---------------------------------
AUXILIARY/J BASIS SET INFORMATION
---------------------------------
There are 2 groups of distinct atoms

 Group   1 Type O   : 8s3p3d contracted to 6s3p3d pattern {311111/111/111}
 Group   2 Type H   : 5s2p1d contracted to 3s1p1d pattern {311/2/1}

Atom   0O    basis set group =>   1
Atom   1H    basis set group =>   2
Atom   2H    basis set group =>   2
------------------------------------------------------------------------------
                             ORCA STARTUP CALCULATIONS
                           -- RI-GTO INTEGRALS CHOSEN --
------------------------------------------------------------------------------
------------------------------------------------------------------------------
                   ___                                                        
                  /   \      - P O W E R E D   B Y -                         
                 /     \                                                     
                 |  |  |   _    _      __       _____    __    __             
                 |  |  |  | |  | |    /  \     |  _  \  |  |  /  |          
                  \  \/   | |  | |   /    \    | | | |  |  | /  /          
                 / \  \   | |__| |  /  /\  \   | |_| |  |  |/  /          
                |  |  |   |  __  | /  /__\  \  |    /   |      \           
                |  |  |   | |  | | |   __   |  |    \   |  |\   \          
                \     /   | |  | | |  |  |  |  | |\  \  |  | \   \       
                 \___/    |_|  |_| |__|  |__|  |_| \__\ |__|  \__/        
                                                                              
                      - O R C A' S   B I G   F R I E N D -                    
                                      &                                       
                       - I N T E G R A L  F E E D E R -                       
                                                                              
 v1 FN, 2020, v2 2021, v3 2022-2024                                           
------------------------------------------------------------------------------


----------------------
SHARK INTEGRAL PACKAGE
----------------------

Number of atoms                             ...      3
Number of basis functions                   ...     34
Number of shells                            ...     16
Maximum angular momentum                    ...      2
Integral batch strategy                     ... SHARK/LIBINT Hybrid
RI-J (if used) integral strategy            ... SPLIT-RIJ (Revised 2003 algorithm where possible)
Printlevel                                  ...      1
Contraction scheme used                     ... SEGMENTED contraction
Prescreening option                         ... SCHWARTZ
   Thresh                                   ... 2.500e-11
   Tcut                                     ... 2.500e-12
   Tpresel                                  ... 2.500e-12 
Coulomb Range Separation                    ... NOT USED
Exchange Range Separation                   ... NOT USED
Multipole approximations                    ... NOT USED
Finite Nucleus Model                        ... NOT USED
CABS basis                                  ... NOT available
Auxiliary Coulomb fitting basis             ... AVAILABLE
   # of basis functions in Aux-J            ...     52
   # of shells in Aux-J                     ...     22
   Maximum angular momentum in Aux-J        ...      2
Auxiliary J/K fitting basis                 ... NOT available
Auxiliary Correlation fitting basis         ... NOT available
Auxiliary 'external' fitting basis          ... NOT available

Checking pre-screening integrals            ... done (  0.0 sec) Dimension = 16
   => SHARK Basis and OBASIS are compatible. Storing Pre-screening
Shell pair information
Shell pair cut-off parameter TPreSel        ...   2.5e-12
Total number of shell pairs                 ...       136
Shell pairs after pre-screening             ...       136
Total number of primitive shell pairs       ...       463
Primitive shell pairs kept                  ...       442
          la=0 lb=0:     45 shell pairs
          la=1 lb=0:     45 shell pairs
          la=1 lb=1:     15 shell pairs
          la=2 lb=0:     18 shell pairs
          la=2 lb=1:     10 shell pairs
          la=2 lb=2:      3 shell pairs

Checking whether 4 symmetric matrices of dimension 34 fit in memory
:Max Core in MB      =    500.00
 MB in use           =      1.36
 MB left             =    498.64
 MB needed           =      0.02
 Data fit in memory  = YES
Calculating RI/J V-Matrix + Cholesky decomp.... done (  0.0 sec)
Calculating Nuclear repulsion               ... done (  0.0 sec) ENN=      7.837556347525 Eh

Diagonalization of the overlap matrix:
Smallest eigenvalue                        ... 1.037e-02
Time for diagonalization                   ...    0.002 sec
Threshold for overlap eigenvalues          ... 1.000e-07
Number of eigenvalues below threshold      ... 0
Time for construction of square roots      ...    0.000 sec
Total time needed                          ...    0.003 sec

-------------------
DFT GRID GENERATION
-------------------

General Integration Accuracy     IntAcc      ... 4.388
Radial Grid Type                 RadialGrid  ... OptM3 with GC (2021)
Angular Grid (max. ang.)         AngularGrid ... 4 (Lebedev-302)
Angular grid pruning method      GridPruning ... 4 (adaptive)
Weight generation scheme         WeightScheme... mBecke (2022)
Basis function cutoff            BFCut       ... 1.0000e-11
Integration weight cutoff        WCut        ... 1.0000e-14
Partially contracted basis set               ... off
Rotationally invariant grid construction     ... off
Angular grids for H and He will be reduced by one unit
Diffuse basis detected: some atoms will have their outermost
                        angular grid increased by 1.

Total number of grid points                  ...    13096
Total number of batches                      ...      206
Average number of points per batch           ...       63
Average number of grid points per atom       ...     4365
Grids setup in   0.1 sec
Initializing property integral containers    ... done (  0.0 sec)

SHARK setup successfully completed in   0.2 seconds

Maximum memory used throughout the entire STARTUP-calculation: 7.7 MB
-------------------------------------------------------------------------------
                                 ORCA GUESS
                   Start orbitals & Density for SCF / CASSCF
-------------------------------------------------------------------------------

------------
SCF SETTINGS
------------
Hamiltonian:
 Density Functional     Method          .... DFT(GTOs)
  Functional kind                       .... Exchange
  Functional name                       .... Re-regularized SCAN exchange by Furness et al
  Functional family                     .... MGGA
  Functional refs                              
    [ 0] J. W. Furness, A. D. Kaplan, J. Ning, J. P. Perdew, and J. Sun.,  J. Phys. Chem. Lett. 11, 8208-8215 (2020), doi: 10.1021/acs.jpclett.0c02405
    [ 1] J. W. Furness, A. D. Kaplan, J. Ning, J. P. Perdew, and J. Sun.,  J. Phys. Chem. Lett. 11, 9248-9248 (2020), doi: 10.1021/acs.jpclett.0c03077
  Functional external parameters        .... 6
    Parameter  0 _c1        =  6.670000e-01 : c1 parameter        
    Parameter  1 _c2        =  8.000000e-01 : c2 parameter        
    Parameter  2 _d         =  1.240000e+00 : d parameter         
    Parameter  3 _k1        =  6.500000e-02 : k1 parameter        
    Parameter  4 _eta       =  1.000000e-03 : eta parameter       
    Parameter  5 _dp2       =  3.610000e-01 : dp2 parameter       
  Functional kind                       .... Correlation
  Functional name                       .... Re-regularized SCAN correlation by Furness et al
  Functional family                     .... MGGA
  Functional refs                              
    [ 0] J. W. Furness, A. D. Kaplan, J. Ning, J. P. Perdew, and J. Sun.,  J. Phys. Chem. Lett. 11, 8208-8215 (2020), doi: 10.1021/acs.jpclett.0c02405
    [ 1] J. W. Furness, A. D. Kaplan, J. Ning, J. P. Perdew, and J. Sun.,  J. Phys. Chem. Lett. 11, 9248-9248 (2020), doi: 10.1021/acs.jpclett.0c03077
  Functional external parameters        .... 1
    Parameter  0 _eta       =  1.000000e-03 : Regularization parameter
 Gradients option       PostSCFGGA      .... off
 RI-approximation to the Coulomb term is turned on
   Number of AuxJ basis functions       .... 52


General Settings:
 Integral files         IntName         .... water
 Hartree-Fock type      HFTyp           .... RHF
 Total Charge           Charge          ....    0
 Multiplicity           Mult            ....    1
 Number of Electrons    NEL             ....   10
 Basis Dimension        Dim             ....   34
 Nuclear Repulsion      ENuc            ....      7.8375563475 Eh

Convergence Acceleration:
 AO-DIIS                CNVDIIS         .... on
   Start iteration      DIISMaxIt       ....    12
   Startup error        DIISStart       ....  0.200000
   # of expansion vecs  DIISMaxEq       ....     5
   Bias factor          DIISBfac        ....   1.050
   Max. coefficient     DIISMaxC        ....  10.000
 MO-DIIS                CNVKDIIS        .... off
 Trust-Rad. Augm. Hess. CNVTRAH         .... auto
   Auto Start mean grad. ratio tolernc. ....  1.125000
   Auto Start start iteration           ....    50
   Auto Start num. interpolation iter.  ....    10
   Max. Number of Micro iterations      ....    24
   Max. Number of Macro iterations      .... Maxiter - #DIIS iter
   Number of Davidson start vectors     ....     2
   Converg. threshold    (grad. norm)   ....   1.000e-05
   Grad. Scal. Fac. for Micro threshold ....   0.100
   Minimum threshold for Micro iter.    ....   1.000e-02
   NR start threshold (gradient norm)   ....   1.000e-04
   Initial trust radius                 ....   0.400
   Minimum AH scaling param. (alpha)    ....   1.000
   Maximum AH scaling param. (alpha)    .... 1000.000
   Quad. conv. algorithm                .... NR
   White noise on init. David. guess    .... on
   Maximum white noise                  ....   0.010
   Pseudo random numbers                .... off
   Inactive MOs                         .... canonical
   Orbital update algorithm             .... Taylor
   Preconditioner                       .... Diag
   Full preconditioner red. dimension   ....   250
   COSX micro iterations for RIJONX calc.... off
 SOSCF                 CNVSOSCF           .... on
   Start iteration     SOSCFMaxIt         ....   150
   Startup grad/error  SOSCFStart         ....  0.003300
   Hessian update      SOSCFHessUp        .... L-BFGS
   Autom. constraints  SOSCFAutoConstrain .... off
 Level Shifting         CNVShift        .... on
   Level shift para.    LevelShift      ....    0.2500
   Turn off err/grad.   ShiftErr        ....    0.0010
 Zerner damping         CNVZerner       .... off
 Static damping         CNVDamp         .... on
   Fraction old density DampFac         ....    0.7000
   Max. Damping (<1)    DampMax         ....    0.9800
   Min. Damping (>=0)   DampMin         ....    0.0000
   Turn off err/grad.   DampErr         ....    0.1000

SCF Procedure:
 Maximum # iterations   MaxIter         ....   125
 SCF integral mode      SCFMode         .... Direct
   Integral package                     .... SHARK and LIBINT hybrid scheme
 Reset frequency        DirectResetFreq ....    20
 Integral Threshold     Thresh          ....  2.500e-11 Eh
 Primitive CutOff       TCut            ....  2.500e-12 Eh

Convergence Tolerance:
 Convergence Check Mode ConvCheckMode   .... Total+1el-Energy
 Convergence forced     ConvForced      .... 0
 Energy Change          TolE            ....  1.000e-08 Eh
 1-El. energy change                    ....  1.000e-05 Eh
 Orbital Gradient       TolG            ....  1.000e-05
 Orbital Rotation angle TolX            ....  1.000e-05
 DIIS Error             TolErr          ....  5.000e-07

------------------------------
INITIAL GUESS: MODEL POTENTIAL
------------------------------
Loading Hartree-Fock densities                     ... done
Calculating cut-offs                               ... done
Initializing the effective Hamiltonian             ... done
Setting up the integral package (SHARK)            ... done
Starting the Coulomb interaction                   ... done (   0.0 sec)
Making the grid                                    ... done (   0.0 sec)
Mapping shells                                     ... done
Starting the XC term evaluation                    ... done (   0.0 sec)
  promolecular density results
     # of electrons  =      9.998489840
     EX              =     -8.666443659
     EC              =     -0.309018903
     EX+EC           =     -8.975462562
Transforming the Hamiltonian                       ... done (   0.0 sec)
Diagonalizing the Hamiltonian                      ... done (   0.0 sec)
Back transforming the eigenvectors                 ... done (   0.0 sec)
Now organizing SCF variables                       ... done
                      ------------------
                      INITIAL GUESS DONE (   0.0 sec)
                      ------------------
             **** ENERGY FILE WAS UPDATED (water.en.tmp) ****
Finished Guess after   0.1 sec
Maximum memory used throughout the entire GUESS-calculation: 3.7 MB

-------------------------------------------------------------------------------------------
                                      ORCA LEAN-SCF
                              memory conserving SCF solver
-------------------------------------------------------------------------------------------

----------------------------------------D-I-I-S--------------------------------------------
Iteration    Energy (Eh)           Delta-E    RMSDP     MaxDP     DIISErr   Damp  Time(sec)
-------------------------------------------------------------------------------------------
               ***  Starting incremental Fock matrix formation  ***
    1    -76.2766842806799303     0.00e+00  8.32e-03  6.53e-02  3.34e-01  0.700   0.1
    2    -76.3276768428461736    -5.10e-02  5.03e-03  3.44e-02  1.13e-01  0.700   0.1
                               ***Turning on AO-DIIS***
    3    -76.3399706443008625    -1.23e-02  1.56e-03  1.03e-02  1.72e-02  0.700   0.1
    4    -76.3489582386233536    -8.99e-03  1.79e-03  1.32e-02  2.74e-02  0.000   0.1
    5    -76.3720171516180386    -2.31e-02  9.03e-04  6.16e-03  1.24e-02  0.000   0.1
                              *** Initializing SOSCF ***
---------------------------------------S-O-S-C-F--------------------------------------
Iteration    Energy (Eh)           Delta-E    RMSDP     MaxDP     MaxGrad    Time(sec)
--------------------------------------------------------------------------------------
    6    -76.3722385015267093    -2.21e-04  3.49e-04  2.30e-03  2.49e-03     0.1
               *** Restarting incremental Fock matrix formation ***
    7    -76.3722551159826111    -1.66e-05  3.17e-04  2.26e-03  7.29e-04     0.1
    8    -76.3722560916070563    -9.76e-07  7.88e-05  6.49e-04  6.55e-04     0.1
    9    -76.3722578364386351    -1.74e-06  7.77e-05  5.13e-04  2.21e-04     0.1
   10    -76.3722582110945467    -3.75e-07  1.70e-05  1.11e-04  4.53e-05     0.1
   11    -76.3722582253415965    -1.42e-08  7.91e-07  5.19e-06  5.23e-06     0.1
   12    -76.3722582255082898    -1.67e-10  1.16e-07  6.84e-07  9.18e-07     0.1
                 **** Energy Check signals convergence ****

               *****************************************************
               *                     SUCCESS                       *
               *           SCF CONVERGED AFTER  12 CYCLES          *
               *****************************************************

             **** ENERGY FILE WAS UPDATED (water.en.tmp) ****

----------------
TOTAL SCF ENERGY
----------------

Total Energy       :        -76.37225822567666 Eh           -2078.19480 eV

Components:
Nuclear Repulsion  :          7.83755634752514 Eh             213.27075 eV
Electronic Energy  :        -84.20981457320180 Eh           -2291.46555 eV
One Electron Energy:       -120.69628205647000 Eh           -3284.31281 eV
Two Electron Energy:         36.48646748326820 Eh             992.84726 eV

Virial components:
Potential Energy   :       -152.06776666885662 Eh           -4137.97430 eV
Kinetic Energy     :         75.69550844317995 Eh            2059.77950 eV
Virial Ratio       :          2.00894042191426

DFT components:
N(Alpha)           :        5.000000594718 electrons
N(Beta)            :        5.000000594718 electrons
N(Total)           :       10.000001189435 electrons
E(X)               :       -8.850304886899 Eh       
E(C)               :       -0.315205715502 Eh       
E(XC)              :       -9.165510602402 Eh       

---------------
SCF CONVERGENCE
---------------

  Last Energy change         ...    1.6669e-10  Tolerance :   1.0000e-08
  Last MAX-Density change    ...    6.8411e-07  Tolerance :   1.0000e-07
  Last RMS-Density change    ...    1.1582e-07  Tolerance :   5.0000e-09
  Last DIIS Error            ...    2.4890e-03  Tolerance :   5.0000e-07
  Last Orbital Gradient      ...    9.1818e-07  Tolerance :   1.0000e-05
  Last Orbital Rotation      ...    1.0502e-06  Tolerance :   1.0000e-05


----------------
ORBITAL ENERGIES
----------------

  NO   OCC          E(Eh)            E(eV) 
   0   2.0000     -18.957328      -515.8551 
   1   2.0000      -0.906664       -24.6716 
   2   2.0000      -0.471081       -12.8188 
   3   2.0000      -0.300509        -8.1773 
   4   2.0000      -0.254247        -6.9184 
   5   0.0000      -0.009986        -0.2717 
   6   0.0000       0.094860         2.5813 
   7   0.0000       0.370490        10.0816 
   8   0.0000       0.433269        11.7898 
   9   0.0000       0.436996        11.8913 
  10   0.0000       0.442753        12.0479 
  11   0.0000       0.456845        12.4314 
  12   0.0000       0.524245        14.2654 
  13   0.0000       0.524944        14.2845 
  14   0.0000       0.667145        18.1539 
  15   0.0000       0.672152        18.2902 
*Only the first 10 virtual orbitals were printed.

                    ********************************
                    * MULLIKEN POPULATION ANALYSIS *
                    ********************************

-----------------------
MULLIKEN ATOMIC CHARGES
-----------------------
   0 O :   -0.696310
   1 H :    0.348155
   2 H :    0.348155
Sum of atomic charges:    0.0000000

--------------------------------
MULLIKEN REDUCED ORBITAL CHARGES
--------------------------------
  0 O s       :     3.853262  s :     3.853262
      pz      :     1.981183  p :     4.834679
      px      :     1.213705
      py      :     1.639790
      dz2     :     0.002472  d :     0.008369
      dxz     :     0.000000
      dyz     :     0.002939
      dx2y2   :    -0.004566
      dxy     :     0.007524

  1 H s       :     0.622822  s :     0.622822
      pz      :     0.007939  p :     0.029023
      px      :     0.013576
      py      :     0.007508

  2 H s       :     0.622822  s :     0.622822
      pz      :     0.007939  p :     0.029023
      px      :     0.013576
      py      :     0.007508



                     *******************************
                     * LOEWDIN POPULATION ANALYSIS *
                     *******************************

----------------------
LOEWDIN ATOMIC CHARGES
----------------------
   0 O :   -0.668879
   1 H :    0.334439
   2 H :    0.334439

-------------------------------
LOEWDIN REDUCED ORBITAL CHARGES
-------------------------------
  0 O s       :     3.679006  s :     3.679006
      pz      :     1.963173  p :     4.949679
      px      :     1.300051
      py      :     1.686454
      dz2     :     0.009390  d :     0.040193
      dxz     :     0.000000
      dyz     :     0.002271
      dx2y2   :     0.001667
      dxy     :     0.026865

  1 H s       :     0.588238  s :     0.588238
      pz      :     0.017278  p :     0.077323
      px      :     0.038572
      py      :     0.021474

  2 H s       :     0.588238  s :     0.588238
      pz      :     0.017278  p :     0.077323
      px      :     0.038572
      py      :     0.021474



                      *****************************
                      * MAYER POPULATION ANALYSIS *
                      *****************************

  NA   - Mulliken gross atomic population
  ZA   - Total nuclear charge
  QA   - Mulliken gross atomic charge
  VA   - Mayer's total valence
  BVA  - Mayer's bonded valence
  FA   - Mayer's free valence

  ATOM       NA         ZA         QA         VA         BVA        FA
  0 O      8.6963     8.0000    -0.6963     1.7204     1.7204     0.0000
  1 H      0.6518     1.0000     0.3482     0.8782     0.8782     0.0000
  2 H      0.6518     1.0000     0.3482     0.8782     0.8782    -0.0000

  Mayer bond orders larger than 0.100000
B(  0-O ,  1-H ) :   0.8602 B(  0-O ,  2-H ) :   0.8602 

-------
TIMINGS
-------

Total SCF time: 0 days 0 hours 0 min 1 sec 

Total time                  ....       1.326 sec
Sum of individual times     ....       1.210 sec  ( 91.2%)

SCF preparation             ....       0.045 sec  (  3.4%)
Fock matrix formation       ....       1.150 sec  ( 86.7%)
  Startup                   ....       0.001 sec  (  0.1% of F)
  Split-RI-J                ....       0.043 sec  (  3.7% of F)
  XC integration            ....       1.185 sec  (103.0% of F)
    Basis function eval.    ....       0.184 sec  ( 15.5% of XC)
    Density eval.           ....       0.265 sec  ( 22.3% of XC)
    XC-Functional eval.     ....       0.491 sec  ( 41.5% of XC)
    XC-Potential eval.      ....       0.195 sec  ( 16.5% of XC)
Diagonalization             ....       0.000 sec  (  0.0%)
Density matrix formation    ....       0.003 sec  (  0.2%)
Total Energy calculation    ....       0.001 sec  (  0.0%)
Population analysis         ....       0.002 sec  (  0.2%)
Orbital Transformation      ....       0.001 sec  (  0.1%)
Orbital Orthonormalization  ....       0.000 sec  (  0.0%)
DIIS solution               ....       0.005 sec  (  0.4%)
SOSCF solution              ....       0.003 sec  (  0.3%)
Finished LeanSCF after   1.3 sec

Maximum memory used throughout the entire LEANSCF-calculation: 3.1 MB


-------------------------------------------------------------------------------
                          DFT DISPERSION CORRECTION                            
                                                                               
                                DFTD4 V3.4.0                                   
-------------------------------------------------------------------------------
The R2SCAN3C composite method is recognized
Using three-body term ABC
Active option DFTDOPT                   ...         5   

-------------------------   ----------------
Dispersion correction           -0.000090556
-------------------------   ----------------

------------------   -----------------
gCP correction             0.002237879
------------------   -----------------

-------------------------   --------------------
FINAL SINGLE POINT ENERGY       -76.370110902627
-------------------------   --------------------

------------------------------------------------------------------------------
                         ORCA SCF GRADIENT CALCULATION
------------------------------------------------------------------------------

Nuc. rep. gradient        (SHARK) ... done (  0.0 sec)
HCore & Overlap gradient  (SHARK) ... done (  0.0 sec)
Split-RIJ-J gradient      (SHARK) ... done (  0.1 sec)
XC gradient                       ... done (  0.2 sec)
Dispersion correction             ... done (  0.0 sec)

-------------------
DISPERSION GRADIENT
-------------------

   1   O   :    0.000000000    0.000020036    0.000000000
   2   H   :   -0.000018507   -0.000010018    0.000000000
   3   H   :    0.000018507   -0.000010018    0.000000000

Difference to translation invariance:
           :    0.0000000000    0.0000000000    0.0000000000

Difference to rotation invariance:
           :    0.0000000000    0.0000000000    0.0000000000

Norm of the Dispersion gradient    ...    0.0000358775
RMS gradient                       ...    0.0000119592
MAX gradient                       ...    0.0000200357
gCP correction                   ... done

------------------
CARTESIAN GRADIENT
------------------

   1   O   :   -0.000000000   -0.037243631    0.000000000
   2   H   :    0.102413580    0.018621815   -0.000000000
   3   H   :   -0.102413580    0.018621815   -0.000000000

Difference to translation invariance:
           :   -0.0000000000   -0.0000000000    0.0000000000

Difference to rotation invariance:
           :   -0.0000000000    0.0000000000   -0.0000000000

Norm of the Cartesian gradient     ...    0.1518476691
RMS gradient                       ...    0.0506158897
MAX gradient                       ...    0.1024135796

-------
TIMINGS
-------

Total SCF gradient time     ....        0.329 sec

Densities                   ....       0.000 sec  (  0.0%)
One electron gradient       ....       0.011 sec  (  3.5%)
RI-J Coulomb gradient       ....       0.089 sec  ( 27.0%)
XC gradient                 ....       0.166 sec  ( 50.4%)

Maximum memory used throughout the entire SCFGRAD-calculation: 23.5 MB
------------------------------------------------------------------------------
                         ORCA GEOMETRY RELAXATION STEP
------------------------------------------------------------------------------

Reading the OPT-File                    .... done
Getting information on internals        .... done
Copying old internal coords+grads       .... done
Making the new internal coordinates     .... (2022 redundants) done
Validating the new internal coordinates .... (2022 redundants) done
Calculating the B-matrix                .... done
Calculating the G,G- and P matrices     .... done
Transforming gradient to internals      .... done
Projecting the internal gradient        .... done
Number of atoms                         ....   3
Number of internal coordinates          ....   3
Current Energy                          ....   -76.370110903 Eh
Current gradient norm                   ....     0.151847669 Eh/bohr
Maximum allowed component of the step   ....  0.300
Current trust radius                    ....  0.300
Evaluating the initial hessian          ....  (Almloef) done
Projecting the Hessian                  .... done
Forming the augmented Hessian           .... done
Diagonalizing the augmented Hessian     .... done
Last element of RFO vector              ....  0.916873367
Lowest eigenvalues of augmented Hessian:
 -0.067093261  0.271005409  0.290960206
Length of the computed step             ....  0.435368946
Warning: the length of the step is outside the trust region - taking restricted step instead
The input lambda is                     ....     0.267024
   iter:   5  x=    0.259677  g=52491.723931 f(x)=   159.544117
   iter:  10  x=    0.165219  g=   89.632383 f(x)=     3.475931
   iter:  15  x=   -0.213814  g=    0.537028 f(x)=     0.029613
   iter:  20  x=   -0.226761  g=    0.350451 f(x)=     0.000000
The output lambda is                    ....    -0.226761 (20 iterations)
The final length of the internal step   ....  0.300000000
Converting the step to Cartesian space:
 Initial RMS(Int)=    0.1732050808
Transforming coordinates:
 Iter   0:  RMS(Cart)=    0.1094310568 RMS(Int)=    0.1729946845
 Iter   5:  RMS(Cart)=    0.0000000542 RMS(Int)=    0.0000001113
done
Storing new coordinates                 .... done

                                .--------------------.
          ----------------------|Geometry convergence|-------------------------
          Item                value                   Tolerance       Converged
          ---------------------------------------------------------------------
          RMS gradient        0.0890008707            0.0001000000      NO
          MAX gradient        0.0999294193            0.0003000000      NO
          RMS step            0.1732050808            0.0020000000      NO
          MAX step            0.1930179341            0.0040000000      NO
          -------------------------------------------------------------------------
          ........................................................
          Max(Bonds)      0.1021      Max(Angles)    7.13
          Max(Dihed)        0.00      Max(Improp)    0.00
          ---------------------------------------------------------------------

The optimization has not yet converged - more geometry cycles are needed


    ---------------------------------------------------------------------------
                         Redundant Internal Coordinates
                            (Angstroem and degrees)

        Definition                    Value    dE/dq     Step     New-Value
    ----------------------------------------------------------------------------
     1. B(H   1,O   0)                1.1180  0.099929 -0.1021    1.0159   
     2. B(H   2,O   0)                1.1180  0.099929 -0.1021    1.0159   
     3. A(H   1,O   0,H   2)          126.87  0.061577   -7.13    119.74   
    ----------------------------------------------------------------------------

Geometry step timings:
Preparation and reading OPT file:      0.000 s ( 3.887 %)
Internal coordinates            :      0.000 s ( 3.992 %)
B/P matrices and projection     :      0.000 s (10.924 %)
Hessian update/contruction      :      0.000 s (19.853 %)
Making the step                 :      0.000 s (21.324 %)
Converting the step to Cartesian:      0.000 s ( 5.882 %)
Storing new data                :      0.000 s ( 5.672 %)
Checking convergence            :      0.000 s ( 7.668 %)
Final printing                  :      0.000 s (20.693 %)
Total time                      :      0.001 s

Time for energy+gradient        :      2.145 s
Time for complete geometry iter :      2.169 s

         *************************************************************
         *                GEOMETRY OPTIMIZATION CYCLE   2            *
         *************************************************************
---------------------------------
CARTESIAN COORDINATES (ANGSTROEM)
---------------------------------
  O      0.000000   -0.006631    0.000000
  H      0.878632    0.503315    0.000000
  H     -0.878632    0.503315    0.000000

----------------------------
CARTESIAN COORDINATES (A.U.)
----------------------------
  NO LB      ZA    FRAG     MASS         X           Y           Z
   0 O     8.0000    0    15.999    0.000000   -0.012531    0.000000
   1 H     1.0000    0     1.008    1.660373    0.951128    0.000000
   2 H     1.0000    0     1.008   -1.660373    0.951128    0.000000

--------------------------------
INTERNAL COORDINATES (ANGSTROEM)
--------------------------------
 O      0   0   0     0.000000000000     0.00000000     0.00000000
 H      1   0   0     1.015893303101     0.00000000     0.00000000
 H      1   2   0     1.015893303107   119.73935606     0.00000000

---------------------------
INTERNAL COORDINATES (A.U.)
---------------------------
 O      0   0   0     0.000000000000     0.00000000     0.00000000
 H      1   0   0     1.919760124145     0.00000000     0.00000000
 H      1   2   0     1.919760124157   119.73935606     0.00000000

------------------------------------------------------------------------------
                   ___                                                        
                  /   \      - P O W E R E D   B Y -                         
                 /     \                                                     
                 |  |  |   _    _      __       _____    __    __             
                 |  |  |  | |  | |    /  \     |  _  \  |  |  /  |          
                  \  \/   | |  | |   /    \    | | | |  |  | /  /          
                 / \  \   | |__| |  /  /\  \   | |_| |  |  |/  /          
                |  |  |   |  __  | /  /__\  \  |    /   |      \           
                |  |  |   | |  | | |   __   |  |    \   |  |\   \          
                \     /   | |  | | |  |  |  |  | |\  \  |  | \   \       
                 \___/    |_|  |_| |__|  |__|  |_| \__\ |__|  \__/        
                                                                              
                      - O R C A' S   B I G   F R I E N D -                    
                                      &                                       
                       - I N T E G R A L  F E E D E R -                       
                                                                              
 v1 FN, 2020, v2 2021, v3 2022-2024                                           
------------------------------------------------------------------------------


----------------------
SHARK INTEGRAL PACKAGE
----------------------

Number of atoms                             ...      3
Number of basis functions                   ...     34
Number of shells                            ...     16
Maximum angular momentum                    ...      2
Integral batch strategy                     ... SHARK/LIBINT Hybrid
RI-J (if used) integral strategy            ... SPLIT-RIJ (Revised 2003 algorithm where possible)
Printlevel                                  ...      1
Contraction scheme used                     ... SEGMENTED contraction
Prescreening option                         ... SCHWARTZ
   Thresh                                   ... 2.500e-11
   Tcut                                     ... 2.500e-12
   Tpresel                                  ... 2.500e-12 
Coulomb Range Separation                    ... NOT USED
Exchange Range Separation                   ... NOT USED
Multipole approximations                    ... NOT USED
Finite Nucleus Model                        ... NOT USED
CABS basis                                  ... NOT available
Auxiliary Coulomb fitting basis             ... AVAILABLE
   # of basis functions in Aux-J            ...     52
   # of shells in Aux-J                     ...     22
   Maximum angular momentum in Aux-J        ...      2
Auxiliary J/K fitting basis                 ... NOT available
Auxiliary Correlation fitting basis         ... NOT available
Auxiliary 'external' fitting basis          ... NOT available

Checking pre-screening integrals            ... done (  0.0 sec) Dimension = 16
   => SHARK Basis and OBASIS are compatible. Storing Pre-screening
Shell pair information
Shell pair cut-off parameter TPreSel        ...   2.5e-12
Total number of shell pairs                 ...       136
Shell pairs after pre-screening             ...       136
Total number of primitive shell pairs       ...       463
Primitive shell pairs kept                  ...       444
          la=0 lb=0:     45 shell pairs
          la=1 lb=0:     45 shell pairs
          la=1 lb=1:     15 shell pairs
          la=2 lb=0:     18 shell pairs
          la=2 lb=1:     10 shell pairs
          la=2 lb=2:      3 shell pairs

Checking whether 4 symmetric matrices of dimension 34 fit in memory
:Max Core in MB      =    500.00
 MB in use           =      1.37
 MB left             =    498.63
 MB needed           =      0.02
 Data fit in memory  = YES
Calculating RI/J V-Matrix + Cholesky decomp.... done (  0.0 sec)
Calculating Nuclear repulsion               ... done (  0.0 sec) ENN=      8.635511664627 Eh

Diagonalization of the overlap matrix:
Smallest eigenvalue                        ... 7.838e-03
Time for diagonalization                   ...    0.000 sec
Threshold for overlap eigenvalues          ... 1.000e-07
Number of eigenvalues below threshold      ... 0
Time for construction of square roots      ...    0.000 sec
Total time needed                          ...    0.001 sec

-------------------
DFT GRID GENERATION
-------------------

General Integration Accuracy     IntAcc      ... 4.388
Radial Grid Type                 RadialGrid  ... OptM3 with GC (2021)
Angular Grid (max. ang.)         AngularGrid ... 4 (Lebedev-302)
Angular grid pruning method      GridPruning ... 4 (adaptive)
Weight generation scheme         WeightScheme... mBecke (2022)
Basis function cutoff            BFCut       ... 1.0000e-11
Integration weight cutoff        WCut        ... 1.0000e-14
Partially contracted basis set               ... off
Rotationally invariant grid construction     ... off
Angular grids for H and He will be reduced by one unit
Diffuse basis detected: some atoms will have their outermost
                        angular grid increased by 1.

Total number of grid points                  ...    13078
Total number of batches                      ...      206
Average number of points per batch           ...       63
Average number of grid points per atom       ...     4359
Grids setup in   0.1 sec
Initializing property integral containers    ... done (  0.0 sec)

SHARK setup successfully completed in   0.1 seconds

Maximum memory used throughout the entire STARTUP-calculation: 7.7 MB
Occupation numbers will be reassigned to an Aufbau configuration
             **** ENERGY FILE WAS UPDATED (water.en.tmp) ****
Finished Guess after   0.0 sec
Maximum memory used throughout the entire GUESS-calculation: 3.7 MB
----------------------------------------D-I-I-S--------------------------------------------
Iteration    Energy (Eh)           Delta-E    RMSDP     MaxDP     DIISErr   Damp  Time(sec)
-------------------------------------------------------------------------------------------
               ***  Starting incremental Fock matrix formation  ***
    1    -76.4044862867946506     0.00e+00  1.11e-03  7.51e-03  5.53e-02  0.700   0.1
    2    -76.4060339781420055    -1.55e-03  8.82e-04  5.09e-03  2.97e-02  0.700   0.1
                               ***Turning on AO-DIIS***
    3    -76.4069401697569504    -9.06e-04  5.84e-04  4.46e-03  1.78e-02  0.700   0.1
    4    -76.4075576262615215    -6.17e-04  1.41e-03  1.01e-02  1.24e-02  0.000   0.1
                              *** Initializing SOSCF ***
---------------------------------------S-O-S-C-F--------------------------------------
Iteration    Energy (Eh)           Delta-E    RMSDP     MaxDP     MaxGrad    Time(sec)
--------------------------------------------------------------------------------------
    5    -76.4089993574466746    -1.44e-03  1.58e-04  1.30e-03  2.98e-03     0.1
               *** Restarting incremental Fock matrix formation ***
    6    -76.4090068371536120    -7.48e-06  8.01e-05  5.73e-04  1.20e-04     0.1
    7    -76.4090070101847090    -1.73e-07  3.42e-05  2.63e-04  6.65e-05     0.1
    8    -76.4090070031432873     7.04e-09  1.90e-05  1.52e-04  7.35e-05     0.1
                 **** Energy Check signals convergence ****

               *****************************************************
               *                     SUCCESS                       *
               *           SCF CONVERGED AFTER   8 CYCLES          *
               *****************************************************

             **** ENERGY FILE WAS UPDATED (water.en.tmp) ****

----------------
TOTAL SCF ENERGY
----------------

Total Energy       :        -76.40900703264343 Eh           -2079.19479 eV

Components:
Nuclear Repulsion  :          8.63551166462663 Eh             234.98422 eV
Electronic Energy  :        -85.04451869727006 Eh           -2314.17900 eV
One Electron Energy:       -122.14091710260590 Eh           -3323.62332 eV
Two Electron Energy:         37.09639840533583 Eh            1009.44432 eV

Virial components:
Potential Energy   :       -152.35322747932867 Eh           -4145.74209 eV
Kinetic Energy     :         75.94422044668524 Eh            2066.54730 eV
Virial Ratio       :          2.00612010477196

DFT components:
N(Alpha)           :        5.000002142084 electrons
N(Beta)            :        5.000002142084 electrons
N(Total)           :       10.000004284168 electrons
E(X)               :       -8.929662249675 Eh       
E(C)               :       -0.317572114049 Eh       
E(XC)              :       -9.247234363725 Eh       

---------------
SCF CONVERGENCE
---------------

  Last Energy change         ...   -7.0414e-09  Tolerance :   1.0000e-08
  Last MAX-Density change    ...    1.5153e-04  Tolerance :   1.0000e-07
  Last RMS-Density change    ...    1.8986e-05  Tolerance :   5.0000e-09
  Last DIIS Error            ...    2.9843e-03  Tolerance :   5.0000e-07
  Last Orbital Gradient      ...    7.3533e-05  Tolerance :   1.0000e-05
  Last Orbital Rotation      ...    1.0487e-04  Tolerance :   1.0000e-05


Total SCF time: 0 days 0 hours 0 min 0 sec 
Finished LeanSCF after   0.9 sec

Maximum memory used throughout the entire LEANSCF-calculation: 3.2 MB


-------------------------------------------------------------------------------
                          DFT DISPERSION CORRECTION                            
                                                                               
                                DFTD4 V3.4.0                                   
-------------------------------------------------------------------------------
-------------------------   ----------------
Dispersion correction           -0.000086542
-------------------------   ----------------

------------------   -----------------
gCP correction             0.001928486
------------------   -----------------

-------------------------   --------------------
FINAL SINGLE POINT ENERGY       -76.407165088503
-------------------------   --------------------

------------------------------------------------------------------------------
                         ORCA SCF GRADIENT CALCULATION
------------------------------------------------------------------------------

Nuc. rep. gradient        (SHARK) ... done (  0.0 sec)
HCore & Overlap gradient  (SHARK) ... done (  0.0 sec)
Split-RIJ-J gradient      (SHARK) ... done (  0.1 sec)
XC gradient                       ... done (  0.2 sec)
Dispersion correction             ... done (  0.0 sec)

-------------------
DISPERSION GRADIENT
-------------------

   1   O   :   -0.000000000    0.000008030    0.000000000
   2   H   :   -0.000005207   -0.000004015    0.000000000
   3   H   :    0.000005207   -0.000004015    0.000000000

Difference to translation invariance:
           :   -0.0000000000    0.0000000000    0.0000000000

Difference to rotation invariance:
           :    0.0000000000    0.0000000000    0.0000000000

Norm of the Dispersion gradient    ...    0.0000122855
RMS gradient                       ...    0.0000040952
MAX gradient                       ...    0.0000080297
gCP correction                   ... done

------------------
CARTESIAN GRADIENT
------------------

   1   O   :   -0.000000000   -0.013472417   -0.000000000
   2   H   :    0.055583143    0.006736209   -0.000000000
   3   H   :   -0.055583143    0.006736208    0.000000000

Difference to translation invariance:
           :   -0.0000000000    0.0000000000   -0.0000000000

Difference to rotation invariance:
           :    0.0000000000    0.0000000001    0.0000000001

Norm of the Cartesian gradient     ...    0.0803195537
RMS gradient                       ...    0.0267731846
MAX gradient                       ...    0.0555831435

-------
TIMINGS
-------

Total SCF gradient time     ....        0.281 sec

Densities                   ....       0.000 sec  (  0.0%)
One electron gradient       ....       0.007 sec  (  2.6%)
RI-J Coulomb gradient       ....       0.074 sec  ( 26.2%)
XC gradient                 ....       0.154 sec  ( 54.7%)

Maximum memory used throughout the entire SCFGRAD-calculation: 23.5 MB
------------------------------------------------------------------------------
                         ORCA GEOMETRY RELAXATION STEP
------------------------------------------------------------------------------

Reading the OPT-File                    .... done
Getting information on internals        .... done
Copying old internal coords+grads       .... done
Making the new internal coordinates     .... (2022 redundants) done
Validating the new internal coordinates .... (2022 redundants) done
Calculating the B-matrix                .... done
Calculating the G,G- and P matrices     .... done
Transforming gradient to internals      .... done
Projecting the internal gradient        .... done
Number of atoms                         ....   3
Number of internal coordinates          ....   3
Current Energy                          ....   -76.407165089 Eh
Current gradient norm                   ....     0.080319554 Eh/bohr
Maximum allowed component of the step   ....  0.300
Current trust radius                    ....  0.300
Updating the Hessian (BFGS)             .... done
Forming the augmented Hessian           .... done
Diagonalizing the augmented Hessian     .... done
Last element of RFO vector              ....  0.948166019
Lowest eigenvalues of augmented Hessian:
 -0.028078906  0.236642577  0.290960206
Length of the computed step             ....  0.335147417
Warning: the length of the step is outside the trust region - taking restricted step instead
The input lambda is                     ....     0.212536
   iter:   5  x=    0.205941  g=91090.660054 f(x)=   230.636074
   iter:  10  x=    0.156050  g=  209.367580 f(x)=     3.987539
   iter:  15  x=   -0.046816  g=    1.104414 f(x)=     0.038071
   iter:  20  x=   -0.057161  g=    0.648485 f(x)=     0.000000
The output lambda is                    ....    -0.057161 (20 iterations)
The final length of the internal step   ....  0.300000000
Converting the step to Cartesian space:
 Initial RMS(Int)=    0.1732050808
Transforming coordinates:
 Iter   0:  RMS(Cart)=    0.1111070239 RMS(Int)=    0.1738641885
 Iter   5:  RMS(Cart)=    0.0000003873 RMS(Int)=    0.0000008982
done
Storing new coordinates                 .... done
The predicted energy change is          ....    -0.015149736
Previously predicted energy change      ....    -0.033324054
Actually observed energy change         ....    -0.037054186
Ratio of predicted to observed change   ....     1.111935125
New trust radius                        ....     0.450000000

                                .--------------------.
          ----------------------|Geometry convergence|-------------------------
          Item                value                   Tolerance       Converged
          ---------------------------------------------------------------------
          Energy change      -0.0370541859            0.0000050000      NO
          RMS gradient        0.0486177722            0.0001000000      NO
          MAX gradient        0.0514544412            0.0003000000      NO
          RMS step            0.1732050808            0.0020000000      NO
          MAX step            0.1742264197            0.0040000000      NO
          -------------------------------------------------------------------------
          ........................................................
          Max(Bonds)      0.0914      Max(Angles)    9.98
          Max(Dihed)        0.00      Max(Improp)    0.00
          ---------------------------------------------------------------------

The optimization has not yet converged - more geometry cycles are needed


    ---------------------------------------------------------------------------
                         Redundant Internal Coordinates
                            (Angstroem and degrees)

        Definition                    Value    dE/dq     Step     New-Value
    ----------------------------------------------------------------------------
     1. B(H   1,O   0)                1.0159  0.051454 -0.0914    0.9245   
     2. B(H   2,O   0)                1.0159  0.051454 -0.0914    0.9245   
     3. A(H   1,O   0,H   2)          119.74  0.042379   -9.98    109.76   
    ----------------------------------------------------------------------------

Geometry step timings:
Preparation and reading OPT file:      0.000 s ( 3.610 %)
Internal coordinates            :      0.000 s ( 4.813 %)
B/P matrices and projection     :      0.000 s (12.968 %)
Hessian update/contruction      :      0.000 s (22.861 %)
Making the step                 :      0.000 s (15.107 %)
Converting the step to Cartesian:      0.000 s ( 5.481 %)
Storing new data                :      0.000 s ( 5.080 %)
Checking convergence            :      0.000 s (11.096 %)
Final printing                  :      0.000 s (18.984 %)
Total time                      :      0.001 s

Time for energy+gradient        :      1.470 s
Time for complete geometry iter :      1.489 s

         *************************************************************
         *                GEOMETRY OPTIMIZATION CYCLE   3            *
         *************************************************************
---------------------------------
CARTESIAN COORDINATES (ANGSTROEM)
---------------------------------
  O      0.000000   -0.021254    0.000000
  H      0.756186    0.510627    0.000000
  H     -0.756186    0.510627    0.000000

----------------------------
CARTESIAN COORDINATES (A.U.)
----------------------------
  NO LB      ZA    FRAG     MASS         X           Y           Z
   0 O     8.0000    0    15.999    0.000000   -0.040165    0.000000
   1 H     1.0000    0     1.008    1.428985    0.964946    0.000000
   2 H     1.0000    0     1.008   -1.428985    0.964946    0.000000

--------------------------------
INTERNAL COORDINATES (ANGSTROEM)
--------------------------------
 O      0   0   0     0.000000000000     0.00000000     0.00000000
 H      1   0   0     0.924508557536     0.00000000     0.00000000
 H      1   2   0     0.924508557669   109.75691703     0.00000000

---------------------------
INTERNAL COORDINATES (A.U.)
---------------------------
 O      0   0   0     0.000000000000     0.00000000     0.00000000
 H      1   0   0     1.747067982209     0.00000000     0.00000000
 H      1   2   0     1.747067982462   109.75691703     0.00000000

------------------------------------------------------------------------------
                   ___                                                        
                  /   \      - P O W E R E D   B Y -                         
                 /     \                                                     
                 |  |  |   _    _      __       _____    __    __             
                 |  |  |  | |  | |    /  \     |  _  \  |  |  /  |          
                  \  \/   | |  | |   /    \    | | | |  |  | /  /          
                 / \  \   | |__| |  /  /\  \   | |_| |  |  |/  /          
                |  |  |   |  __  | /  /__\  \  |    /   |      \           
                |  |  |   | |  | | |   __   |  |    \   |  |\   \          
                \     /   | |  | | |  |  |  |  | |\  \  |  | \   \       
                 \___/    |_|  |_| |__|  |__|  |_| \__\ |__|  \__/        
                                                                              
                      - O R C A' S   B I G   F R I E N D -                    
                                      &                                       
                       - I N T E G R A L  F E E D E R -                       
                                                                              
 v1 FN, 2020, v2 2021, v3 2022-2024                                           
------------------------------------------------------------------------------


----------------------
SHARK INTEGRAL PACKAGE
----------------------

Number of atoms                             ...      3
Number of basis functions                   ...     34
Number of shells                            ...     16
Maximum angular momentum                    ...      2
Integral batch strategy                     ... SHARK/LIBINT Hybrid
RI-J (if used) integral strategy            ... SPLIT-RIJ (Revised 2003 algorithm where possible)
Printlevel                                  ...      1
Contraction scheme used                     ... SEGMENTED contraction
Prescreening option                         ... SCHWARTZ
   Thresh                                   ... 2.500e-11
   Tcut                                     ... 2.500e-12
   Tpresel                                  ... 2.500e-12 
Coulomb Range Separation                    ... NOT USED
Exchange Range Separation                   ... NOT USED
Multipole approximations                    ... NOT USED
Finite Nucleus Model                        ... NOT USED
CABS basis                                  ... NOT available
Auxiliary Coulomb fitting basis             ... AVAILABLE
   # of basis functions in Aux-J            ...     52
   # of shells in Aux-J                     ...     22
   Maximum angular momentum in Aux-J        ...      2
Auxiliary J/K fitting basis                 ... NOT available
Auxiliary Correlation fitting basis         ... NOT available
Auxiliary 'external' fitting basis          ... NOT available

Checking pre-screening integrals            ... done (  0.0 sec) Dimension = 16
   => SHARK Basis and OBASIS are compatible. Storing Pre-screening
Shell pair information
Shell pair cut-off parameter TPreSel        ...   2.5e-12
Total number of shell pairs                 ...       136
Shell pairs after pre-screening             ...       136
Total number of primitive shell pairs       ...       463
Primitive shell pairs kept                  ...       448
          la=0 lb=0:     45 shell pairs
          la=1 lb=0:     45 shell pairs
          la=1 lb=1:     15 shell pairs
          la=2 lb=0:     18 shell pairs
          la=2 lb=1:     10 shell pairs
          la=2 lb=2:      3 shell pairs

Checking whether 4 symmetric matrices of dimension 34 fit in memory
:Max Core in MB      =    500.00
 MB in use           =      1.37
 MB left             =    498.63
 MB needed           =      0.02
 Data fit in memory  = YES
Calculating RI/J V-Matrix + Cholesky decomp.... done (  0.0 sec)
Calculating Nuclear repulsion               ... done (  0.0 sec) ENN=      9.508099757018 Eh

Diagonalization of the overlap matrix:
Smallest eigenvalue                        ... 5.589e-03
Time for diagonalization                   ...    0.001 sec
Threshold for overlap eigenvalues          ... 1.000e-07
Number of eigenvalues below threshold      ... 0
Time for construction of square roots      ...    0.000 sec
Total time needed                          ...    0.001 sec

-------------------
DFT GRID GENERATION
-------------------

General Integration Accuracy     IntAcc      ... 4.388
Radial Grid Type                 RadialGrid  ... OptM3 with GC (2021)
Angular Grid (max. ang.)         AngularGrid ... 4 (Lebedev-302)
Angular grid pruning method      GridPruning ... 4 (adaptive)
Weight generation scheme         WeightScheme... mBecke (2022)
Basis function cutoff            BFCut       ... 1.0000e-11
Integration weight cutoff        WCut        ... 1.0000e-14
Partially contracted basis set               ... off
Rotationally invariant grid construction     ... off
Angular grids for H and He will be reduced by one unit
Diffuse basis detected: some atoms will have their outermost
                        angular grid increased by 1.

Total number of grid points                  ...    13066
Total number of batches                      ...      206
Average number of points per batch           ...       63
Average number of grid points per atom       ...     4355
Grids setup in   0.1 sec
Initializing property integral containers    ... done (  0.0 sec)

SHARK setup successfully completed in   0.1 seconds

Maximum memory used throughout the entire STARTUP-calculation: 7.7 MB
Occupation numbers will be reassigned to an Aufbau configuration
             **** ENERGY FILE WAS UPDATED (water.en.tmp) ****
Finished Guess after   0.0 sec
Maximum memory used throughout the entire GUESS-calculation: 3.7 MB
----------------------------------------D-I-I-S--------------------------------------------
Iteration    Energy (Eh)           Delta-E    RMSDP     MaxDP     DIISErr   Damp  Time(sec)
-------------------------------------------------------------------------------------------
               ***  Starting incremental Fock matrix formation  ***
    1    -76.4119892845237558     0.00e+00  1.24e-03  7.94e-03  4.93e-02  0.700   0.1
    2    -76.4137682074063491    -1.78e-03  9.71e-04  6.73e-03  2.67e-02  0.700   0.1
                               ***Turning on AO-DIIS***
    3    -76.4148428669989812    -1.07e-03  6.55e-04  5.46e-03  1.84e-02  0.700   0.1
    4    -76.4155642959852628    -7.21e-04  1.57e-03  1.20e-02  1.28e-02  0.000   0.1
                              *** Initializing SOSCF ***
---------------------------------------S-O-S-C-F--------------------------------------
Iteration    Energy (Eh)           Delta-E    RMSDP     MaxDP     MaxGrad    Time(sec)
--------------------------------------------------------------------------------------
    5    -76.4172481528812284    -1.68e-03  1.50e-04  1.24e-03  2.91e-03     0.1
               *** Restarting incremental Fock matrix formation ***
    6    -76.4172545749996033    -6.42e-06  6.69e-05  4.65e-04  1.91e-04     0.1
    7    -76.4172545631661251     1.18e-08  3.12e-05  2.52e-04  2.22e-04     0.1
    8    -76.4172548204692532    -2.57e-07  8.72e-06  7.43e-05  2.07e-05     0.1
    9    -76.4172548237813771    -3.31e-09  1.61e-06  1.16e-05  9.86e-06     0.1
                 **** Energy Check signals convergence ****

               *****************************************************
               *                     SUCCESS                       *
               *           SCF CONVERGED AFTER   9 CYCLES          *
               *****************************************************

             **** ENERGY FILE WAS UPDATED (water.en.tmp) ****

----------------
TOTAL SCF ENERGY
----------------

Total Energy       :        -76.41725482426264 Eh           -2079.41922 eV

Components:
Nuclear Repulsion  :          9.50809975701802 Eh             258.72855 eV
Electronic Energy  :        -85.92535458128066 Eh           -2338.14777 eV
One Electron Energy:       -123.66080863399712 Eh           -3364.98168 eV
Two Electron Energy:         37.73545405271646 Eh            1026.83391 eV

Virial components:
Potential Energy   :       -152.69663894058803 Eh           -4155.08679 eV
Kinetic Energy     :         76.27938411632539 Eh            2075.66757 eV
Virial Ratio       :          2.00180744390551

DFT components:
N(Alpha)           :        5.000000689393 electrons
N(Beta)            :        5.000000689393 electrons
N(Total)           :       10.000001378786 electrons
E(X)               :       -9.016675862753 Eh       
E(C)               :       -0.319854156718 Eh       
E(XC)              :       -9.336530019470 Eh       

---------------
SCF CONVERGENCE
---------------

  Last Energy change         ...    3.3121e-09  Tolerance :   1.0000e-08
  Last MAX-Density change    ...    1.1605e-05  Tolerance :   1.0000e-07
  Last RMS-Density change    ...    1.6073e-06  Tolerance :   5.0000e-09
  Last DIIS Error            ...    2.9117e-03  Tolerance :   5.0000e-07
  Last Orbital Gradient      ...    9.8630e-06  Tolerance :   1.0000e-05
  Last Orbital Rotation      ...    6.6065e-06  Tolerance :   1.0000e-05


Total SCF time: 0 days 0 hours 0 min 0 sec 
Finished LeanSCF after   1.0 sec

Maximum memory used throughout the entire LEANSCF-calculation: 3.2 MB


-------------------------------------------------------------------------------
                          DFT DISPERSION CORRECTION                            
                                                                               
                                DFTD4 V3.4.0                                   
-------------------------------------------------------------------------------
-------------------------   ----------------
Dispersion correction           -0.000084776
-------------------------   ----------------

------------------   -----------------
gCP correction             0.001654643
------------------   -----------------

-------------------------   --------------------
FINAL SINGLE POINT ENERGY       -76.415684957453
-------------------------   --------------------

------------------------------------------------------------------------------
                         ORCA SCF GRADIENT CALCULATION
------------------------------------------------------------------------------

Nuc. rep. gradient        (SHARK) ... done (  0.0 sec)
HCore & Overlap gradient  (SHARK) ... done (  0.0 sec)
Split-RIJ-J gradient      (SHARK) ... done (  0.1 sec)
XC gradient                       ... done (  0.1 sec)
Dispersion correction             ... done (  0.0 sec)

-------------------
DISPERSION GRADIENT
-------------------

   1   O   :    0.000000000    0.000009277    0.000000000
   2   H   :   -0.000004233   -0.000004638    0.000000000
   3   H   :    0.000004233   -0.000004638    0.000000000

Difference to translation invariance:
           :    0.0000000000    0.0000000000    0.0000000000

Difference to rotation invariance:
           :    0.0000000000    0.0000000000   -0.0000000000

Norm of the Dispersion gradient    ...    0.0000128422
RMS gradient                       ...    0.0000042807
MAX gradient                       ...    0.0000092770
[...]
   Startup grad/error  SOSCFStart         ....  0.003300
   Hessian update      SOSCFHessUp        .... L-BFGS
   Autom. constraints  SOSCFAutoConstrain .... off
 Level Shifting         CNVShift        .... on
   Level shift para.    LevelShift      ....    0.2500
   Turn off err/grad.   ShiftErr        ....    0.0010
 Zerner damping         CNVZerner       .... off
 Static damping         CNVDamp         .... on
   Fraction old density DampFac         ....    0.7000
   Max. Damping (<1)    DampMax         ....    0.9800
   Min. Damping (>=0)   DampMin         ....    0.0000
   Turn off err/grad.   DampErr         ....    0.1000

SCF Procedure:
 Maximum # iterations   MaxIter         ....   125
 SCF integral mode      SCFMode         .... Direct
   Integral package                     .... SHARK and LIBINT hybrid scheme
 Reset frequency        DirectResetFreq ....    20
 Integral Threshold     Thresh          ....  2.500e-11 Eh
 Primitive CutOff       TCut            ....  2.500e-12 Eh

Convergence Tolerance:
 Convergence Check Mode ConvCheckMode   .... Total+1el-Energy
 Convergence forced     ConvForced      .... 0
 Energy Change          TolE            ....  1.000e-08 Eh
 1-El. energy change                    ....  1.000e-05 Eh
 Orbital Gradient       TolG            ....  1.000e-05
 Orbital Rotation angle TolX            ....  1.000e-05
 DIIS Error             TolErr          ....  5.000e-07

---------------------
INITIAL GUESS: MOREAD
---------------------
Guess MOs are being read from file: water.gbw
Input Geometry matches current geometry (good)
Input basis set matches current basis set (good)
Occupation numbers will be reassigned to an Aufbau configuration
MOs were renormalized
MOs were reorthogonalized (Cholesky)
                      ------------------
                      INITIAL GUESS DONE (   0.0 sec)
                      ------------------
             **** ENERGY FILE WAS UPDATED (water.en.tmp) ****
Finished Guess after   0.0 sec
Maximum memory used throughout the entire GUESS-calculation: 3.7 MB

-------------------------------------------------------------------------------------------
                                      ORCA LEAN-SCF
                              memory conserving SCF solver
-------------------------------------------------------------------------------------------

----------------------------------------D-I-I-S--------------------------------------------
Iteration    Energy (Eh)           Delta-E    RMSDP     MaxDP     DIISErr   Damp  Time(sec)
-------------------------------------------------------------------------------------------
               ***  Starting incremental Fock matrix formation  ***
                              *** Initializing SOSCF ***
---------------------------------------S-O-S-C-F--------------------------------------
Iteration    Energy (Eh)           Delta-E    RMSDP     MaxDP     MaxGrad    Time(sec)
--------------------------------------------------------------------------------------
    1    -76.4206711236564473     0.00e+00  4.58e-06  3.62e-05  4.78e-06     0.1
               *** Restarting incremental Fock matrix formation ***
    2    -76.4206711305490245    -6.89e-09  1.50e-06  1.18e-05  6.33e-06     0.1
    3    -76.4206711306290032    -8.00e-11  9.29e-07  6.58e-06  7.65e-06     0.1
                 **** Energy Check signals convergence ****

               *****************************************************
               *                     SUCCESS                       *
               *           SCF CONVERGED AFTER   3 CYCLES          *
               *****************************************************

             **** ENERGY FILE WAS UPDATED (water.en.tmp) ****

----------------
TOTAL SCF ENERGY
----------------

Total Energy       :        -76.42067113091402 Eh           -2079.51218 eV

Components:
Nuclear Repulsion  :          9.15236547486709 Eh             249.04853 eV
Electronic Energy  :        -85.57303660578111 Eh           -2328.56071 eV
One Electron Energy:       -123.02484374601318 Eh           -3347.67619 eV
Two Electron Energy:         37.45180714023206 Eh            1019.11548 eV

Virial components:
Potential Energy   :       -152.56874805585269 Eh           -4151.60670 eV
Kinetic Energy     :         76.14807692493868 Eh            2072.09452 eV
Virial Ratio       :          2.00357979107265

DFT components:
N(Alpha)           :        5.000000049804 electrons
N(Beta)            :        5.000000049804 electrons
N(Total)           :       10.000000099608 electrons
E(X)               :       -8.980881204772 Eh       
E(C)               :       -0.318850995699 Eh       
E(XC)              :       -9.299732200471 Eh       

---------------
SCF CONVERGENCE
---------------

  Last Energy change         ...    7.9979e-11  Tolerance :   1.0000e-08
  Last MAX-Density change    ...    6.5820e-06  Tolerance :   1.0000e-07
  Last RMS-Density change    ...    9.2891e-07  Tolerance :   5.0000e-09
  Last DIIS Error            ...    3.8413e-05  Tolerance :   5.0000e-07
  Last Orbital Gradient      ...    7.6520e-06  Tolerance :   1.0000e-05
  Last Orbital Rotation      ...    5.3474e-06  Tolerance :   1.0000e-05


----------------
ORBITAL ENERGIES
----------------

  NO   OCC          E(Eh)            E(eV) 
   0   2.0000     -18.950560      -515.6709 
   1   2.0000      -0.974695       -26.5228 
   2   2.0000      -0.494889       -13.4666 
   3   2.0000      -0.353196        -9.6110 
   4   2.0000      -0.273100        -7.4314 
   5   0.0000       0.070617         1.9216 
   6   0.0000       0.155631         4.2349 
   7   0.0000       0.404112        10.9965 
   8   0.0000       0.424820        11.5599 
   9   0.0000       0.435945        11.8627 
  10   0.0000       0.441957        12.0263 
  11   0.0000       0.474966        12.9245 
  12   0.0000       0.514088        13.9890 
  13   0.0000       0.518234        14.1019 
  14   0.0000       0.692571        18.8458 
  15   0.0000       0.727683        19.8013 
*Only the first 10 virtual orbitals were printed.

                    ********************************
                    * MULLIKEN POPULATION ANALYSIS *
                    ********************************

-----------------------
MULLIKEN ATOMIC CHARGES
-----------------------
   0 O :   -0.613023
   1 H :    0.306512
   2 H :    0.306512
Sum of atomic charges:   -0.0000000

--------------------------------
MULLIKEN REDUCED ORBITAL CHARGES
--------------------------------
  0 O s       :     3.792459  s :     3.792459
      pz      :     1.967382  p :     4.800153
      px      :     1.265390
      py      :     1.567381
      dz2     :     0.003957  d :     0.020411
      dxz     :     0.000000
      dyz     :     0.005303
      dx2y2   :     0.001162
      dxy     :     0.009989

  1 H s       :     0.647181  s :     0.647181
      pz      :     0.013658  p :     0.046307
      px      :     0.018134
      py      :     0.014515

  2 H s       :     0.647181  s :     0.647181
      pz      :     0.013658  p :     0.046307
      px      :     0.018134
      py      :     0.014515



                     *******************************
                     * LOEWDIN POPULATION ANALYSIS *
                     *******************************

----------------------
LOEWDIN ATOMIC CHARGES
----------------------
   0 O :   -0.508647
   1 H :    0.254323
   2 H :    0.254323

-------------------------------
LOEWDIN REDUCED ORBITAL CHARGES
-------------------------------
  0 O s       :     3.554572  s :     3.554572
      pz      :     1.927538  p :     4.904583
      px      :     1.348180
      py      :     1.628865
      dz2     :     0.009830  d :     0.049491
      dxz     :     0.000000
      dyz     :     0.003277
      dx2y2   :     0.000414
      dxy     :     0.035971

  1 H s       :     0.621294  s :     0.621294
      pz      :     0.034592  p :     0.124383
      px      :     0.046605
      py      :     0.043186

  2 H s       :     0.621294  s :     0.621294
      pz      :     0.034592  p :     0.124383
      px      :     0.046605
      py      :     0.043186



                      *****************************
                      * MAYER POPULATION ANALYSIS *
                      *****************************

  NA   - Mulliken gross atomic population
  ZA   - Total nuclear charge
  QA   - Mulliken gross atomic charge
  VA   - Mayer's total valence
  BVA  - Mayer's bonded valence
  FA   - Mayer's free valence

  ATOM       NA         ZA         QA         VA         BVA        FA
  0 O      8.6130     8.0000    -0.6130     1.8201     1.8201    -0.0000
  1 H      0.6935     1.0000     0.3065     0.9136     0.9136     0.0000
  2 H      0.6935     1.0000     0.3065     0.9136     0.9136    -0.0000

  Mayer bond orders larger than 0.100000
B(  0-O ,  1-H ) :   0.9101 B(  0-O ,  2-H ) :   0.9101 

-------
TIMINGS
-------

Total SCF time: 0 days 0 hours 0 min 0 sec 

Total time                  ....       0.433 sec
Sum of individual times     ....       0.328 sec  ( 75.6%)

SCF preparation             ....       0.042 sec  (  9.7%)
Fock matrix formation       ....       0.273 sec  ( 63.0%)
  Startup                   ....       0.000 sec  (  0.1% of F)
  Split-RI-J                ....       0.011 sec  (  4.1% of F)
  XC integration            ....       0.345 sec  (126.5% of F)
    Basis function eval.    ....       0.054 sec  ( 15.7% of XC)
    Density eval.           ....       0.079 sec  ( 22.8% of XC)
    XC-Functional eval.     ....       0.143 sec  ( 41.5% of XC)
    XC-Potential eval.      ....       0.057 sec  ( 16.5% of XC)
Diagonalization             ....       0.000 sec  (  0.0%)
Density matrix formation    ....       0.000 sec  (  0.1%)
Total Energy calculation    ....       0.000 sec  (  0.0%)
Population analysis         ....       0.010 sec  (  2.3%)
Orbital Transformation      ....       0.000 sec  (  0.1%)
Orbital Orthonormalization  ....       0.000 sec  (  0.0%)
DIIS solution               ....       0.001 sec  (  0.1%)
SOSCF solution              ....       0.001 sec  (  0.3%)
Finished LeanSCF after   0.4 sec

Maximum memory used throughout the entire LEANSCF-calculation: 3.4 MB


-------------------------------------------------------------------------------
                          DFT DISPERSION CORRECTION                            
                                                                               
                                DFTD4 V3.4.0                                   
-------------------------------------------------------------------------------
The R2SCAN3C composite method is recognized
Using three-body term ABC
Active option DFTDOPT                   ...         5   

-------------------------   ----------------
Dispersion correction           -0.000085849
-------------------------   ----------------

------------------   -----------------
gCP correction             0.001818259
------------------   -----------------

-------------------------   --------------------
FINAL SINGLE POINT ENERGY       -76.418938720941
-------------------------   --------------------

                                *** OPTIMIZATION RUN DONE ***


------------------------------------------------------------------------------
                              ORCA PROPERTY CALCULATIONS
------------------------------------------------------------------------------

GBWName                                 ... water.gbw
Number of atoms                         ...      3
Number of basis functions               ...     34
Max core memory                         ...    500 MB

Electric properties:
Dipole moment                           ... YES
Quadrupole moment                       ...  NO
Static polarizability (Dipole/Dipole)   ...  NO
Static polarizability (Dipole/Quad.)    ...  NO
Static polarizability (Quad./Quad.)     ...  NO
Static polarizability (Velocity)        ...  NO
Static hyperpolarizability              ...  NO

Atomic electric properties:
Dipole moment                           ...  NO
Quadrupole moment                       ...  NO
Static polarizability                   ...  NO

Choice of electric origin               ... Center of mass
Position of electric origin             ...     0.000000     0.009518     0.000000

General magnetic properties:
Magnetizability                         ...  NO

EPR properties:
g-Tensor (aka g-matrix)                 ...  NO
Zero-Field splitting spin-orbit         ...  NO
Zero-field splitting spin-spin          ...  NO
Hyperfine couplings                     ...  NO (   0 nuclei)
Quadrupole couplings                    ...  NO (   0 nuclei)
Contact density                         ...  NO (   0 nuclei)

NMR properties:
Chemical shifts                         ...  NO (   0 nuclei)
Spin-rotation constants                 ...  NO (   0 nuclei)
Spin-spin couplings                     ...  NO (   0 nuclei,    0 pairs)

Choice of magnetic origin               ... GIAO
Position of magnetic origin             ...     0.000000     0.000000     0.000000

Properties with geometric perturbations:
SCF Hessian                             ...  NO
IR spectrum                             ...  NO
VCD spectrum                            ...  NO
X-ray spectroscopy properties:
SCF XES/XAS/RIXS spectra                ...  NO

SCF SOC stabilization energy            ...  NO
Diagonal Born-Oppenheimer correction    ...  NO

-------------
DIPOLE MOMENT
-------------

Method             : SCF
Type of density    : Electron Density
Multiplicity       :   1
Irrep              :   0
Energy             :   -76.4206711309140161 Eh
Basis              : AO
                                X                 Y                 Z
Electronic contribution:      0.000000000      -0.252847841       0.000000000
Nuclear contribution   :     -0.000000000       0.985150615       0.000000000
                        -----------------------------------------
Total Dipole Moment    :      0.000000000       0.732302774       0.000000000
                        -----------------------------------------
Magnitude (a.u.)       :      0.732302774
Magnitude (Debye)      :      1.861365726



--------------------
Rotational spectrum 
--------------------
 
Rotational constants in cm-1:            26.885939            14.547543             9.439814 
Rotational constants in MHz :        806020.188434        436124.363469        282998.497305 

Dipole components along the rotational axes: 
x,y,z [a.u.] :     0.000000     0.732303     0.000000 
x,y,z [Debye]:     0.000000     1.861366     0.000000 

 

Dipole moment calculation done in   0.0 sec 

Maximum memory used throughout the entire PROP-calculation: 1.8 MB

--------------------------------
SUGGESTED CITATIONS FOR THIS RUN
--------------------------------

Below you find a list of papers that are relevant to this ORCA run
We neither can nor want to force you to cite these papers, but we appreciate if you do
You receive ORCA, which is the product of decades of hard work by many enthusiastic individuals, for free
The only thing we kindly ask in return is that you cite our papers,
We deeply appreciate it, if you show your appreciation for ORCA by not just citing the generic ORCA reference.

Please note that relegating all ORCA citations to the supporting information does *not* help us.
SI sections are not indexed - citations you put there will not count into any citation statistics
But we need these citations in order to attract the funding resources that allow us to do what we are doing

Therefore, if you are a happy ORCA user, please consider citing a few of the papers listed below in the main body of your paper

In addition to the list printed below, the program has created the file water.bibtex that contains the list in bibtex format
You can import this file easily into all common literature databanks and citation aid programs


List of essential papers. We consider these as the minimum necessary citations

  1. Grimme, S.; Hansen, A.; Ehlert, S.; Mewes, J.
     r2SCAN-3c: A 'Swiss army knife' composite electronic-structure method
     J. Chem. Phys. 2021 154 , 064103
     doi.org/10.1063/5.0040021
  2. Neese, F.
     Software update: the ORCA program system, version 6.0
     WIRES Comput. Molec. Sci. 2025 15(1), e70019
     doi.org/10.1002/wcms.7019

List of papers to cite with high priority. The work reported in these papers was absolutely
necessary for this run to complete.
Our perspective: the developers of density functionals and basis sets usually get cited in chemistry papers
Good! But without the algorithms to do something with them, the functionals or basis sets would not do anything.
Hence, in our opinion, the algorithm design and method developments papers are equally worthy of getting cited

  1. Neese, F.
     An improvement of the resolution of the identity approximation for the formation of the Coulomb matrix
     J. Comp. Chem. 2003 24(14), 1740-1747
     doi.org/10.1002/jcc.10318
  2. Caldeweyher, E.; Bannwarth, C.; Grimme, S.
     Extension of the D3 dispersion coefficient model
     J. Chem. Phys. 2017 147 , 034112
     doi.org/10.1063/1.4993215
  3. Lehtola, S.; Steigemann, C.; Oliveira, M.; Marques, M.
     Recent developments in Libxc - A comprehensive library of functionals for density functional theory
     Software X 2018 7 , 
     doi.org/10.1016/j.softx.2017.11.002
  4. Caldeweyher, E.; Ehlert, S.; Hansen, A.; Neugebauer, H.; Spicher, S.; Bannwarth, C.; Grimme, S.
     A generally applicable atomic-charge dependent London dispersion correction
     J. Chem. Phys. 2019 150 , 154122
     doi.org/10.1063/1.5090222
  5. Caldeweyher, E.; Mewes, J.; Ehlert, S.; Grimme, S.
     Extension and evaluation of the D4 London-dispersion model for periodic systems
     Phys. Chem. Chem. Phys. 2020 22(16), 8499-8512
     doi.org/10.1039/D0CP00502A
  6. Neese, F.
     The SHARK Integral Generation and Digestion System
     J. Comp. Chem. 2022 44(3), 381
     doi.org/10.1002/jcc.26942
  7. Wittmann, L.; Gordiy, I.; Friede, M.; Helmich-Paris, B.; Grimme, S.; Hansen, A.; Bursch, M.
     Extension of the D3 and D4 London Dispersion Corrections to the full Actinides Series
     Phys. Chem. Chem. Phys. 2024 26(32), 21379-21394
     doi.org/10.1039/D4CP01514B

List of suggested additional citations. These are papers that are important in the 'surrounding' of 
of this run, or papers that preceded the highly important papers. If you like your results we are grateful for a citation.

  1. Neese, F.
     The ORCA program system
     WIRES Comput. Molec. Sci. 2012 2(1), 73-78
     doi.org/10.1002/wcms.81
  2. Neese, F.
     Software update: the ORCA program system, version 4.0
     WIRES Comput. Molec. Sci. 2018 8(1), 1-6
     doi.org/10.1002/wcms.1327
  3. Neese, F.; Wennmohs, F.; Becker, U.; Riplinger, C.
     The ORCA quantum chemistry program package
     J. Chem. Phys. 2020 152(22), 224108
     doi.org/10.1063/5.0004608
  4. Neese, F.
     Software update: The ORCA program system—Version 5.0
     WIRES Comput. Molec. Sci. 2022 12(1), e1606
     doi.org/10.1002/wcms.1606

List of optional additional citations

  1. Neese, F.
     Approximate second-order SCF convergence for spin unrestricted wavefunctions
     Chem. Phys. Lett. 2000 325(1-3), 93-98
     doi.org/10.1016/s0009-2614(00)00662-x

Timings for individual modules:

Sum of individual times          ...        9.562 sec (=   0.159 min)
Startup calculation              ...        1.054 sec (=   0.018 min)  11.0 %
SCF iterations                   ...        6.313 sec (=   0.105 min)  66.0 %
Property calculations            ...        0.066 sec (=   0.001 min)   0.7 %
SCF Gradient evaluation          ...        2.114 sec (=   0.035 min)  22.1 %
Geometry relaxation              ...        0.016 sec (=   0.000 min)   0.2 %
                             ****ORCA TERMINATED NORMALLY****
TOTAL RUN TIME: 0 days 0 hours 0 minutes 10 seconds 303 msec
